 Gaussian 16, Revision C.01,
 Gaussian 16:  ES64L-G16RevC.01  3-Jul-2019

 ----------------------------------------------------------------------
 #n M062X/cc-pvtz TD EmpiricalDispersion=GD3 Freq=(SaveNM,HPModes) Geom
 =AllCheck
 ----------------------------------------------------------------------

 Structure from the checkpoint file:  "check_tsf6.chk"
 -----
 Title
 -----
 Charge =  1 Multiplicity = 1

                         Standard orientation:
 ---------------------------------------------------------------------
 Center     Atomic      Atomic             Coordinates (Angstroms)
 Number     Number       Type             X           Y           Z
 ---------------------------------------------------------------------
      1          6           0       -0.000000    2.492655    1.360431
      2          6           0       -0.000000    3.701508    0.671989
      3          6           0       -0.000000    3.683861   -0.713830
      4          6           0       -0.000000    2.463156   -1.407538
      5          6           0       -0.000000   -2.463156   -1.407538
      6          6           0       -0.000000   -3.683861   -0.713830
      7          6           0       -0.000000   -3.701508    0.671989
      8          6           0       -0.000000   -2.492655    1.360431
      9          6           0        0.000000   -0.000000    1.453369
     10          6           0       -0.000000    0.000000   -1.429189
     11          6           0       -0.000000    1.262055    0.677065
     12          6           0       -0.000000    1.237471   -0.730804
     13          6           0       -0.000000   -1.262055    0.677065
     14          6           0       -0.000000   -1.237471   -0.730804
     15          1           0       -0.000000    2.488071    2.443647
     16          1           0       -0.000000    4.636753    1.211689
     17          1           0       -0.000000    4.609262   -1.272349
     18          1           0       -0.000000    2.467550   -2.490059
     19          1           0       -0.000000    0.000000   -2.510266
     20          1           0       -0.000000   -2.467550   -2.490059
     21          1           0       -0.000000   -4.609262   -1.272349
     22          1           0       -0.000000   -4.636753    1.211689
     23          1           0       -0.000000   -2.488071    2.443647
     24          1           0       -0.859585    0.000000    2.145787
     25          1           0        0.859585   -0.000000    2.145787
 ---------------------------------------------------------------------

 SCF Done:  E(RM062X) =  -539.815832845     A.U. after   14 cycles

 Excitation energies and oscillator strengths:

 Excited State   1:      Singlet-A1     2.8225 eV  439.26 nm  f=0.0276  <S**2>=0.000
      47 -> 48         0.70416
 This state for optimization and/or second-order correction.
 Total Energy, E(TD-HF/TD-DFT) =  -539.712106157
 Copying the excited state density for this state as the 1-particle RhoCI density.

 Excited State   2:      Singlet-B2     3.2644 eV  379.80 nm  f=0.0035  <S**2>=0.000
      45 -> 48         0.61321
      46 -> 48        -0.34069

 Excited State   3:      Singlet-B2     3.4853 eV  355.73 nm  f=0.5465  <S**2>=0.000
      45 -> 48         0.34268
      46 -> 48         0.60880

 The electronic state is 1-A1.
 Alpha  occ. eigenvalues --  -10.77535 -10.73109 -10.73108 -10.72260 -10.72259
 Alpha  occ. eigenvalues --  -10.71234 -10.71234 -10.70916 -10.70916 -10.70839
 Alpha  occ. eigenvalues --  -10.69841 -10.69841 -10.69527 -10.69527  -1.16258
 Alpha  occ. eigenvalues --   -1.12288  -1.06777  -1.05578  -1.01159  -1.00035
 Alpha  occ. eigenvalues --   -0.95635  -0.90879  -0.86213  -0.85732  -0.83651
 Alpha  occ. eigenvalues --   -0.78240  -0.75785  -0.74199  -0.69350  -0.69079
 Alpha  occ. eigenvalues --   -0.68300  -0.68017  -0.67980  -0.64502  -0.64061
 Alpha  occ. eigenvalues --   -0.62821  -0.61661  -0.59945  -0.59665  -0.58898
 Alpha  occ. eigenvalues --   -0.56691  -0.54990  -0.54605  -0.52415  -0.46577
 Alpha  occ. eigenvalues --   -0.45998  -0.44440
 Alpha virt. eigenvalues --   -0.25961  -0.14401  -0.13959  -0.12486  -0.06851
 Alpha virt. eigenvalues --   -0.05510  -0.05364  -0.04073  -0.02676  -0.01624
 Alpha virt. eigenvalues --   -0.00206   0.00381   0.00577   0.01936   0.02305

 Mulliken charges:
               1
     1  C   -0.100047
     2  C   -0.030224
     3  C   -0.120395
     4  C   -0.062137
     5  C   -0.062137
     6  C   -0.120395
     7  C   -0.030224
     8  C   -0.100047
     9  C   -0.308877
    10  C   -0.067016
    11  C    0.103522
    12  C    0.055567
    13  C    0.103522
    14  C    0.055567
    15  H    0.136918
    16  H    0.147910
    17  H    0.142767
    18  H    0.131211
    19  H    0.159997
    20  H    0.131211
    21  H    0.142767
    22  H    0.147910
    23  H    0.136918
    24  H    0.202856
    25  H    0.202856
 Sum of Mulliken charges =   1.00000

 Dipole moment (field-independent basis, Debye):
    X=             -0.0000    Y=             -0.0000    Z=             -0.1964  Tot=              0.1964
 Quadrupole moment (field-independent basis, Debye-Ang):
   XX=            -83.3715   YY=            -30.9534   ZZ=            -56.4108
   XY=              0.0000   XZ=             -0.0000   YZ=              0.0000

  Exact polarizability:      69.019       0.000     860.381       0.000      -0.000     154.549
 Approx polarizability:     102.924       0.000     336.751       0.000      -0.000     228.583

 ******    1 imaginary frequencies (negative Signs) ******

                      1                      2                      3
                     B2                     B1                     A2
 Frequencies --   -409.4903                59.1670               106.8035
 Red. masses --      5.8264                 3.8582                 3.6330
 Frc consts  --      0.5756                 0.0080                 0.0244
 IR Inten    --  22334.9599                 0.1923                 0.0000

                      4                      5                      6
                     B1                     A2                     A1
 Frequencies --    199.1888               221.9958               234.4456
 Red. masses --      1.9787                 4.6535                 4.3872
 Frc consts  --      0.0463                 0.1351                 0.1421
 IR Inten    --     10.7344                 0.0000                 0.0517

                      7                      8                      9
                     B1                     A1                     B1
 Frequencies --    280.5628               378.0734               383.7932
 Red. masses --      2.7402                 6.8128                 2.4706
 Frc consts  --      0.1271                 0.5738                 0.2144
 IR Inten    --      3.7175                 0.0201                12.9643

                     10                     11                     12
                     B2                     A2                     A2
 Frequencies --    387.0387               417.0292               473.3333
 Red. masses --      4.4228                 2.8893                 2.9456
 Frc consts  --      0.3903                 0.2961                 0.3888
 IR Inten    --    105.7611                 0.0000                 0.0000

                     13                     14                     15
                     B1                     B2                     B1
 Frequencies --    499.8173               556.3564               571.6389
 Red. masses --      2.3037                 6.7106                 2.2117
 Frc consts  --      0.3391                 1.2238                 0.4258
 IR Inten    --      8.3317               331.2755                 0.1420

                     16                     17                     18
                     A1                     A1                     A2
 Frequencies --    611.3981               668.1879               668.7806
 Red. masses --      6.4470                 5.9429                 2.7442
 Frc consts  --      1.4199                 1.5633                 0.7232
 IR Inten    --      0.7769                 0.4783                 0.0000

                     19                     20                     21
                     B1                     A1                     A2
 Frequencies --    730.1110               756.3354               760.8929
 Red. masses --      1.2106                 5.3459                 1.2391
 Frc consts  --      0.3802                 1.8018                 0.4227
 IR Inten    --     19.1394                 0.6442                 0.0000

                     22                     23                     24
                     B1                     B2                     B2
 Frequencies --    781.5650               810.9026               867.2334
 Red. masses --      1.4826                 4.3067                 2.5618
 Frc consts  --      0.5336                 1.6685                 1.1352
 IR Inten    --     87.5122              1352.4165              7393.6419

                     25                     26                     27
                     B1                     A1                     A2
 Frequencies --    870.9936               895.8978               903.0392
 Red. masses --      1.9278                 5.5960                 1.4656
 Frc consts  --      0.8617                 2.6463                 0.7042
 IR Inten    --     15.3570                 2.0172                 0.0000

                     28                     29                     30
                     B2                     B1                     A2
 Frequencies --    917.9844               923.9061               989.7926
 Red. masses --      5.1662                 2.0462                 1.4152
 Frc consts  --      2.5650                 1.0291                 0.8168
 IR Inten    --   1290.5204                 0.7629                 0.0000

                     31                     32                     33
                     B1                     A2                     B1
 Frequencies --    999.0781              1020.7097              1022.8130
 Red. masses --      1.4770                 1.4795                 1.4647
 Frc consts  --      0.8686                 0.9082                 0.9028
 IR Inten    --      3.3217                 0.0000                 0.9611

                     34                     35                     36
                     A1                     B2                     B2
 Frequencies --   1069.9783              1086.8695              1105.5811
 Red. masses --      2.3825                 2.0023                 1.9685
 Frc consts  --      1.6070                 1.3936                 1.4176
 IR Inten    --      1.7631               575.9088                14.1511

                     37                     38                     39
                     A1                     A2                     B2
 Frequencies --   1142.8077              1147.0444              1179.8561
 Red. masses --      1.6015                 1.1417                 1.2107
 Frc consts  --      1.2323                 0.8850                 0.9930
 IR Inten    --      0.1980                 0.0000                 8.0867

                     40                     41                     42
                     A1                     B2                     A1
 Frequencies --   1193.2062              1203.0850              1233.6207
 Red. masses --      1.1274                 1.5950                 4.4877
 Frc consts  --      0.9457                 1.3602                 4.0238
 IR Inten    --      3.9707                 0.0073                 3.1982

                     43                     44                     45
                     B2                     A1                     A1
 Frequencies --   1261.6271              1278.6386              1314.1008
 Red. masses --      1.9382                 3.5504                 1.6274
 Frc consts  --      1.8176                 3.4199                 1.6558
 IR Inten    --    254.6404                 0.1328                 0.5715

                     46                     47                     48
                     B2                     A1                     B2
 Frequencies --   1338.5522              1339.2558              1349.5979
 Red. masses --      3.0766                 2.1181                 2.6363
 Frc consts  --      3.2478                 2.2383                 2.8291
 IR Inten    --   1100.0531                56.6468              1045.0076

                     49                     50                     51
                     A1                     B2                     B2
 Frequencies --   1365.1904              1393.0727              1434.9373
 Red. masses --      1.5297                 1.9276                 2.1164
 Frc consts  --      1.6797                 2.2040                 2.5675
 IR Inten    --      3.6100               257.5738               810.1429

                     52                     53                     54
                     A1                     B2                     B2
 Frequencies --   1473.5420              1486.2902              1515.7485
 Red. masses --      2.0561                 2.6352                 2.4653
 Frc consts  --      2.6304                 3.4298                 3.3372
 IR Inten    --     68.0957               290.9217                 4.9623

                     55                     56                     57
                     A1                     B2                     A1
 Frequencies --   1542.1455              1568.6746              1622.0670
 Red. masses --      2.7469                 3.5580                 5.5337
 Frc consts  --      3.8490                 5.1585                 8.5784
 IR Inten    --      0.6151               183.0672                 0.0822

                     58                     59                     60
                     A1                     A1                     B1
 Frequencies --   1649.7933              2965.9295              2968.4475
 Red. masses --      6.5332                 1.0632                 1.0904
 Frc consts  --     10.4770                 5.5104                 5.6612
 IR Inten    --     17.4702                 8.6952                 3.9253

                     61                     62                     63
                     B2                     A1                     B2
 Frequencies --   3204.6734              3204.9840              3213.8990
 Red. masses --      1.0904                 1.0909                 1.0908
 Frc consts  --      6.5981                 6.6021                 6.6382
 IR Inten    --     20.7303                 0.2613                 0.0002

                     64                     65                     66
                     A1                     A1                     B2
 Frequencies --   3214.0173              3228.1437              3230.4049
 Red. masses --      1.0908                 1.0906                 1.0925
 Frc consts  --      6.6386                 6.6960                 6.7169
 IR Inten    --      0.0251                 0.0002                 2.1551

                     67                     68                     69
                     A1                     B2                     A1
 Frequencies --   3230.4835              3244.5137              3245.1962
 Red. masses --      1.0923                 1.0970                 1.0975
 Frc consts  --      6.7165                 6.8037                 6.8097
 IR Inten    --      0.2808                32.9853                 0.3424

 - Thermochemistry -
 -------------------
 Temperature   298.150 Kelvin.  Pressure   1.00000 Atm.
 Atom     1 has atomic number  6 and mass  12.00000

 Molecular mass:   179.08608 amu.
 Principal axes and moments of inertia in atomic units:
                           1         2         3
     Eigenvalues --   844.826624059.002664893.19224
           X            0.00000   0.00000   1.00000
           Y            1.00000   0.00000  -0.00000
           Z            0.00000   1.00000   0.00000
 This molecule is an asymmetric top.
 Rotational symmetry number  2.
 Warning -- assumption of classical behavior for rotation
           may cause significant error
 Rotational temperatures (Kelvin)      0.10252     0.02134     0.01770
 Rotational constants (GHZ):           2.13623     0.44463     0.36883
    1 imaginary frequencies ignored.
 Zero-point vibrational energy     527641.9 (Joules/Mol)
                                  126.10945 (Kcal/Mol)
 Warning -- explicit consideration of  15 degrees of freedom as
           vibrations may cause significant error
 Vibrational temperatures:     85.13   153.67   286.59   319.40   337.31
          (Kelvin)            403.67   543.96   552.19   556.86   600.01
                              681.02   719.13   800.47   822.46   879.67
                              961.37   962.23  1050.47  1088.20  1094.76
                             1124.50  1166.71  1247.76  1253.17  1289.00
                             1299.27  1320.77  1329.29  1424.09  1437.45
                             1468.57  1471.60  1539.46  1563.76  1590.68
                             1644.25  1650.34  1697.55  1716.76  1730.97
                             1774.91  1815.20  1839.68  1890.70  1925.88
                             1926.89  1941.77  1964.20  2004.32  2064.55
                             2120.10  2138.44  2180.82  2218.80  2256.97
                             2333.79  2373.68  4267.31  4270.93  4610.81
                             4611.26  4624.08  4624.25  4644.58  4647.83
                             4647.95  4668.13  4669.11

 Zero-point correction=                           0.200968 (Hartree/Particle)
 Thermal correction to Energy=                    0.211107
 Thermal correction to Enthalpy=                  0.212051
 Thermal correction to Gibbs Free Energy=         0.165864
 Sum of electronic and zero-point Energies=           -539.511138
 Sum of electronic and thermal Energies=              -539.500999
 Sum of electronic and thermal Enthalpies=            -539.500055
 Sum of electronic and thermal Free Energies=         -539.546242

                     E (Thermal)             CV                S
                      KCal/Mol        Cal/Mol-Kelvin    Cal/Mol-Kelvin
 Total                  132.472             42.382             97.209
 Electronic               0.000              0.000              0.000
 Translational            0.889              2.981             41.455
 Rotational               0.889              2.981             29.818
 Vibrational            130.694             36.420             25.936
 Vibration     1          0.597              1.974              4.485
 Vibration     2          0.606              1.944              3.326
 Vibration     3          0.637              1.841              2.141
 Vibration     4          0.648              1.808              1.943
 Vibration     5          0.654              1.788              1.845
 Vibration     6          0.680              1.710              1.530
 Vibration     7          0.748              1.517              1.047
 Vibration     8          0.753              1.505              1.024
 Vibration     9          0.755              1.498              1.012
 Vibration    10          0.780              1.433              0.902
 Vibration    11          0.830              1.309              0.728
 Vibration    12          0.855              1.250              0.659
 Vibration    13          0.912              1.126              0.531
 Vibration    14          0.928              1.093              0.501
 Vibration    15          0.971              1.008              0.430

 Optimization completed.
    -- Stationary point found.
 Normal termination of Gaussian 16 at Fri Aug 19 16:04:31 2022.
